ITEM: TIMESTEP
60000
ITEM: NUMBER OF ATOMS
436
ITEM: BOX BOUNDS pp pp ff
0.0000000000000000e+00 1.0000000000000000e+02
0.0000000000000000e+00 1.0000000000000000e+02
0.0000000000000000e+00 3.0000000000000000e+01
ITEM: ATOMS id type x y z 
139 1 29.5208 6.68868 0.87707 
348 2 32.4129 8.64244 0.558931 
116 1 17.8581 16.3788 1.10838 
341 2 20.7731 15.7456 0.690181 
81 1 66.4387 29.4805 0.511402 
168 1 91.1298 68.2851 1.57375 
395 2 62.0131 74.4545 1.01583 
436 2 81.6506 75.6833 1.16744 
95 1 25.6708 76.8782 1.35156 
401 2 74.3143 84.7001 1.24242 
155 1 47.1381 89.3107 0.889537 
396 2 10.0893 93.9757 1.18506 
350 2 91.2808 94.6703 0.658543 
329 2 23.7627 5.76821 1.58089 
154 1 65.8296 8.9801 3.15111 
66 1 21.7133 9.5837 3.02032 
179 1 98.8857 13.0173 2.58563 
367 2 27.3274 19.9456 1.81888 
77 1 93.8199 21.5398 2.03355 
221 2 79.5161 24.1466 2.69492 
377 2 39.9316 26.4001 2.27845 
74 1 93.808 38.413 2.90998 
57 1 74.7715 39.333 2.1587 
162 1 95.6445 40.7685 2.9216 
21 1 48.9848 43.7479 1.78275 
5 1 26.0199 61.8226 2.10569 
298 2 38.9193 64.2991 2.11309 
305 2 95.9422 71.7146 2.87546 
201 1 53.2526 73.4113 2.73741 
365 2 13.9942 76.537 2.3524 
423 2 31.0235 79.503 2.73268 
236 2 48.3265 90.2238 2.99997 
200 1 63.3434 4.81936 3.72511 
222 2 57.6562 10.1908 3.8833 
36 1 45.351 12.2328 3.33494 
174 1 20.2826 25.8605 4.34388 
307 2 39.4917 29.6676 4.33834 
28 1 39.0156 37.9033 3.61784 
156 1 0.558216 39.9509 4.59357 
30 1 48.9329 40.0216 3.45345 
315 2 73.0338 42.0349 4.18439 
371 2 97.6155 41.4475 4.2929 
50 1 70.9901 42.3791 3.95732 
373 2 79.0176 43.4967 3.34201 
68 1 76.9593 49.6745 3.42902 
152 1 67.0909 51.1931 3.63138 
282 2 23.9663 57.2388 4.52748 
15 1 17.2876 61.397 4.51704 
142 1 47.5221 62.4903 3.25341 
170 1 78.6237 65.3322 3.96863 
242 2 84.0605 67.0083 3.18622 
237 2 71.465 69.6714 4.63597 
80 1 9.47472 75.9706 4.01753 
89 1 32.7468 78.7678 4.7291 
110 1 77.7824 79.0804 3.86894 
76 1 54.5549 93.8272 4.45907 
293 2 66.1094 94.0115 3.42705 
130 1 15.4835 98.2483 3.94374 
314 2 23.9505 98.4497 4.43876 
263 2 27.9524 4.04332 4.86173 
184 1 27.1437 3.686 5.49146 
270 2 34.0082 4.13352 5.36267 
3 1 74.1985 8.43383 5.58683 
391 2 61.8946 23.5257 6.04729 
7 1 15.9521 31.7461 6.23428 
273 2 16.8197 31.9157 5.26869 
251 2 47.2433 33.592 5.65715 
390 2 2.05479 36.9879 4.88018 
274 2 50.3408 40.5271 5.83624 
344 2 52.3582 43.0458 5.03802 
295 2 17.3287 46.8649 6.18616 
234 2 32.8616 45.3336 5.27288 
347 2 76.827 55.0118 4.98536 
351 2 10.2878 60.597 5.57939 
219 2 13.9662 60.0705 5.69695 
435 2 47.2027 67.1279 5.47691 
97 1 43.8729 68.9547 6.08445 
361 2 85.5737 69.9981 5.69178 
102 1 48.7867 75.5164 5.70015 
175 1 77.0073 86.7312 5.54542 
230 2 77.6969 89.7127 5.33644 
40 1 52.9596 95.4714 6.20803 
216 1 87.7947 98.1132 4.74414 
165 1 24.1286 99.014 5.95645 
63 1 38.0438 7.85041 7.28523 
413 2 63.2855 8.94234 7.08537 
167 1 32.8599 16.6978 7.38156 
409 2 89.0901 16.688 7.00929 
420 2 31.2045 18.503 7.26362 
238 2 69.6294 18.7137 7.09199 
13 1 59.6543 21.0936 7.705 
172 1 87.4022 21.7853 7.70868 
182 1 0.909382 29.3961 7.75142 
47 1 14.44 35.6844 6.70545 
100 1 37.5961 34.4737 6.94825 
247 2 42.8438 36.7848 6.89594 
146 1 50.8342 37.4629 7.45855 
65 1 15.5499 38.4391 7.0726 
288 2 14.5615 39.0795 6.33327 
114 1 36.3862 42.5307 7.42265 
232 2 40.1235 44.6954 7.62478 
323 2 59.9463 44.8438 6.43994 
99 1 42.495 45.8679 6.50941 
345 2 83.1818 51.4158 7.64949 
331 2 3.65617 56.9545 6.89804 
322 2 36.9669 59.1475 7.87693 
374 2 82.5595 62.3002 7.39911 
193 1 58.9013 67.9252 7.71733 
198 1 99.321 67.363 6.79666 
339 2 9.27085 68.9013 7.181 
194 1 75.1394 72.1185 7.45925 
145 1 41.7625 89.0343 6.93396 
289 2 53.1738 89.6498 6.84763 
235 2 4.78449 11.4569 9.41737 
310 2 36.251 11.78 9.01588 
354 2 77.8787 15.7892 9.37017 
108 1 43.9131 24.8433 8.68237 
226 2 82.0333 26.0943 8.57059 
243 2 81.4997 29.309 8.50844 
183 1 86.5125 30.662 8.54192 
356 2 3.97586 36.309 8.75535 
334 2 1.28194 48.7805 8.17096 
256 2 13.0824 50.3232 9.25983 
191 1 4.198 54.6717 8.63314 
223 2 74.2665 71.0355 8.11859 
312 2 24.3497 77.6134 8.91728 
397 2 32.4838 80.8397 8.15559 
59 1 10.4928 84.4779 7.99424 
259 2 98.1871 88.3671 9.40885 
415 2 63.7988 92.8342 9.30511 
203 1 64.8996 92.6376 9.13628 
53 1 99.9578 97.6346 8.7779 
412 2 67.1311 99.7476 8.47214 
79 1 57.4022 1.46155 9.96004 
218 1 71.0418 5.48048 10.5506 
9 1 3.72949 10.1554 9.96539 
209 1 51.6387 13.7241 9.52386 
189 1 73.7973 17.0666 9.52803 
278 2 10.2905 21.597 9.6086 
311 2 47.7464 23.5886 10.2456 
187 1 30.7796 25.0991 10.7648 
244 2 26.5131 36.3054 10.1207 
88 1 43.8454 41.3858 10.3729 
128 1 63.216 40.7245 10.0567 
330 2 76.6363 51.6625 9.61331 
211 1 90.3249 58.4023 10.965 
84 1 9.13627 60.4596 10.3422 
58 1 69.0249 68.6685 10.7736 
320 2 97.7384 67.7335 9.617 
70 1 4.48343 73.5997 10.8703 
318 2 19.6087 74.1308 9.56008 
42 1 96.4911 73.8435 10.6363 
340 2 8.60102 77.9559 9.60442 
176 1 82.7667 81.3146 10.7509 
143 1 12.7071 93.723 10.1176 
403 2 20.4141 95.127 10.7409 
429 2 91.1073 3.08335 11.1848 
258 2 60.7836 3.15697 12.0552 
349 2 10.6602 8.46358 12.3275 
129 1 36.0835 10.9471 11.9735 
228 2 44.7223 16.1196 11.5895 
115 1 75.1688 20.8167 11.913 
382 2 91.3853 22.1818 11.3653 
324 2 6.15581 26.3365 11.9833 
408 2 57.7793 36.1661 11.6986 
122 1 20.8316 46.0144 12.1995 
120 1 84.5279 47.9118 11.5158 
370 2 69.3577 49.64 12.3065 
61 1 4.47567 53.6052 12.5874 
123 1 1.86173 55.8453 11.6027 
271 2 40.6132 56.2895 12.0932 
245 2 58.7674 56.3735 11.6852 
48 1 62.4437 57.5195 11.2475 
104 1 39.7916 57.8552 12.2989 
39 1 22.5745 60.3454 11.806 
91 1 8.06761 76.3719 12.4823 
378 2 91.4876 79.5824 11.2241 
49 1 31.3523 81.4121 11.1165 
306 2 42.6025 86.0774 12.0793 
279 2 68.8038 86.0944 12.4366 
24 1 44.6252 2.49675 13.1681 
125 1 95.7222 3.51764 14.037 
418 2 32.2422 5.64978 13.9107 
220 2 80.3313 12.2492 12.7521 
428 2 54.4471 14.1359 13.4472 
138 1 55.5772 22.9565 13.2545 
255 2 85.2244 25.3618 13.4654 
78 1 48.5747 26.9673 12.6898 
430 2 87.8989 43.6297 12.9934 
17 1 50.5494 53.1037 13.8802 
246 2 69.9991 63.5288 14.1233 
297 2 83.9905 67.509 13.2504 
294 2 68.2338 79.3303 14.2091 
342 2 21.5364 82.538 12.9073 
18 1 21.2971 83.5097 13.4155 
404 2 22.6924 88.3132 13.8293 
326 2 12.422 92.9597 13.4229 
355 2 0.220393 6.66454 14.2478 
375 2 99.8284 18.1196 15.5504 
369 2 64.5474 24.3513 14.4052 
124 1 23.2223 26.9017 14.6345 
12 1 48.0518 30.7526 14.6631 
248 2 78.3797 30.9027 15.1861 
366 2 91.9742 32.8956 15.1821 
319 2 53.8801 35.6773 15.698 
290 2 33.5891 36.6263 15.5905 
38 1 76.0589 37.5809 15.7111 
52 1 3.31162 39.8477 15.4727 
317 2 12.2063 43.6582 14.8353 
188 1 12.509 44.9266 14.4605 
336 2 55.5841 49.7827 14.3026 
186 1 86.7004 49.1452 15.5925 
302 2 52.1257 51.063 14.5477 
399 2 83.8165 59.9952 15.7099 
181 1 79.1343 64.6883 15.3273 
283 2 4.15188 66.1514 15.169 
380 2 81.0804 65.6361 15.207 
416 2 18.5236 74.5931 15.2071 
87 1 25.9514 74.3624 15.1455 
16 1 31.404 76.835 14.681 
35 1 0.303729 84.8556 14.2972 
22 1 56.2764 88.7105 15.0445 
94 1 96.6283 91.3606 15.068 
118 1 32.7066 93.2776 15.6106 
207 1 67.7582 94.4412 15.1643 
224 2 47.1035 7.01571 15.87 
332 2 74.1701 6.74195 16.5649 
149 1 44.4689 7.91988 16.431 
83 1 42.6785 11.1039 16.6523 
272 2 38.6013 14.3571 17.0607 
44 1 80.871 22.1708 15.9281 
299 2 44.645 27.3151 16.5319 
358 2 41.0006 29.5555 16.3433 
1 1 86.0215 32.4455 16.8511 
346 2 14.1602 41.4222 16.6387 
335 2 82.4406 46.1786 16.1663 
239 2 85.3766 48.3181 15.9887 
25 1 51.2233 48.4431 17.073 
178 1 66.6001 50.7191 15.833 
51 1 37.6453 52.4647 16.2223 
215 1 90.4523 53.445 17.2976 
372 2 43.042 68.6946 17.0183 
10 1 17.0899 73.1564 16.8294 
300 2 64.3191 72.7203 16.9631 
231 2 3.16693 80.7757 16.1712 
363 2 0.359712 81.7374 16.3469 
433 2 10.3822 91.7443 16.1558 
46 1 29.6003 91.5351 16.7641 
41 1 93.8826 92.4846 16.6064 
121 1 24.6345 97.2514 16.4018 
208 1 19.475 98.5017 16.2668 
427 2 28.9601 5.57321 17.9598 
353 2 64.4531 7.90786 18.5456 
54 1 30.6501 12.4775 17.3816 
132 1 25.4037 16.5619 17.4092 
199 1 51.1254 17.5264 18.2836 
105 1 13.6903 24.1085 18.8686 
11 1 65.3769 25.0606 18.2344 
29 1 55.1172 43.9823 17.9536 
277 2 93.4309 44.0011 18.7039 
177 1 23.1075 52.2481 17.771 
213 1 67.5081 61.23 18.5606 
368 2 23.0139 67.5561 17.7993 
109 1 37.008 69.0808 18.1772 
379 2 80.6217 69.5015 18.3859 
252 2 57.697 81.1229 17.5498 
56 1 70.8321 79.9039 17.9125 
148 1 97.9731 81.3032 18.1536 
313 2 15.7844 86.1257 18.7121 
20 1 77.5003 86.7646 18.5135 
308 2 81.1506 91.9482 18.0679 
233 2 98.7065 92.035 18.4835 
147 1 24.927 93.3087 18.6985 
190 1 64.7575 94.3459 18.1691 
424 2 25.4432 95.6778 17.8855 
434 2 82.5405 98.2857 17.4642 
73 1 83.024 99.5598 18.4137 
385 2 57.7033 1.47077 19.0407 
23 1 59.5322 1.93251 19.2515 
31 1 27.4233 4.73954 20.418 
227 2 31.6994 8.64778 19.6473 
185 1 40.7639 8.88669 20.1723 
386 2 84.0144 10.2667 19.1635 
241 2 31.0659 17.6561 19.6932 
137 1 37.0253 20.053 19.07 
107 1 80.9678 20.2965 20.4041 
32 1 55.8673 25.2473 20.4709 
37 1 57.695 32.01 19.7494 
276 2 66.7141 40.3789 20.0072 
275 2 11.0738 63.4499 19.0895 
135 1 50.7833 62.6731 20.0583 
82 1 78.1241 69.0278 20.1604 
64 1 37.3395 75.8174 19.1561 
381 2 92.6019 75.4246 19.4188 
387 2 29.1072 78.9792 19.3606 
171 1 82.066 78.4956 19.5818 
285 2 72.9662 81.2106 19.8988 
166 1 51.6571 89.5075 19.6335 
269 2 3.49933 91.2327 20.4116 
425 2 49.0688 97.9001 19.4346 
160 1 31.7604 98.6272 19.9134 
321 2 98.3553 99.2841 19.6317 
432 2 62.3493 0.903019 22.0667 
392 2 8.3814 4.94057 21.1075 
103 1 61.1252 6.14191 20.5881 
4 1 68.173 6.00393 20.999 
72 1 5.62838 18.0662 21.3421 
410 2 49.0082 17.6064 20.7796 
421 2 66.8603 22.7192 20.8646 
362 2 15.3421 23.4757 21.1719 
60 1 98.7292 23.4995 21.4969 
202 1 26.127 25.6665 21.2524 
287 2 51.8158 26.3099 21.1924 
98 1 50.5446 26.6677 21.9793 
112 1 77.0941 37.2152 21.2021 
325 2 40.6094 37.9887 20.7741 
240 2 86.4943 37.8581 21.9657 
180 1 91.4931 41.8707 21.4678 
229 2 70.6004 46.0095 20.7858 
360 2 88.4871 46.9117 21.113 
43 1 79.7141 58.4031 21.3687 
268 2 50.8863 61.3031 21.0811 
192 1 8.92531 64.7911 20.9693 
250 2 23.0511 68.4509 21.4267 
204 1 88.5564 67.9931 21.8496 
265 2 81.1293 73.7563 21.1643 
364 2 16.178 76.0902 20.7103 
117 1 23.0495 75.2976 21.9305 
71 1 23.7552 84.711 21.9806 
217 1 3.79999 86.6328 20.8775 
388 2 31.8987 89.4868 21.0731 
304 2 77.8694 97.293 21.7953 
75 1 11.3731 98.6832 21.1984 
173 1 57.6348 98.4519 21.392 
45 1 18.5994 1.22541 22.5849 
257 2 24.0726 14.5396 22.3274 
309 2 7.30472 16.243 22.7437 
93 1 15.9743 18.7282 22.3437 
113 1 54.7147 21.1573 23.1614 
384 2 26.5855 26.0408 22.1596 
291 2 51.4734 27.1113 22.8843 
26 1 69.6587 28.4305 22.2942 
352 2 99.2578 32.1294 22.4462 
262 2 54.1969 39.8435 22.6206 
163 1 31.6894 42.6619 23.4948 
136 1 63.6354 42.6198 23.0364 
111 1 9.18773 50.7144 22.6284 
393 2 7.96911 50.2079 22.2551 
376 2 39.0533 50.3907 22.2615 
140 1 62.8357 53.5523 22.8812 
212 1 91.1133 70.3762 23.2893 
126 1 4.7559 71.8764 22.7204 
411 2 72.4026 74.9771 22.705 
359 2 38.0475 77.2247 22.9583 
419 2 23.8154 81.1301 23.4852 
55 1 50.7048 82.5942 22.9174 
292 2 45.9115 83.2911 22.8299 
296 2 12.021 86.8892 22.3946 
414 2 5.34982 93.7267 22.2134 
400 2 51.2614 99.2375 23.5368 
8 1 25.5128 0.519151 24.7064 
264 2 53.8969 8.71571 24.374 
90 1 20.5235 17.013 23.7856 
131 1 95.4739 19.3943 24.143 
405 2 15.862 22.3919 25.0288 
2 1 17.2428 27.7772 24.189 
161 1 25.4793 38.5307 24.2781 
6 1 81.3349 41.4438 24.5462 
150 1 84.7729 48.2546 24.6453 
225 2 22.7776 52.5057 24.8147 
27 1 67.6528 51.7499 24.8653 
260 2 26.3176 60.615 24.3427 
343 2 48.7454 64.4096 24.8346 
164 1 69.6375 65.684 24.2943 
101 1 8.50062 86.5447 24.0758 
96 1 88.9357 86.3267 23.7442 
159 1 6.69621 93.1326 24.4908 
328 2 28.0203 93.2311 24.7346 
14 1 97.1618 95.3618 24.6878 
357 2 36.3225 4.92132 26.5561 
196 1 91.9532 11.9965 25.4062 
86 1 34.5988 12.8569 26.0792 
281 2 53.0024 34.4703 26.3685 
426 2 47.9158 37.2653 26.8149 
33 1 86.0703 39.2809 26.2168 
153 1 77.6476 42.1313 26.1047 
169 1 21.9988 51.3907 25.4526 
134 1 48.2156 51.0134 26.7139 
254 2 79.5581 55.0353 26.1171 
19 1 45.8443 69.7299 25.3435 
394 2 51.745 69.6226 26.6187 
398 2 52.5002 75.7477 25.373 
34 1 76.7889 75.0187 25.8451 
383 2 39.8692 76.7338 26.7341 
144 1 79.3193 88.6886 26.0839 
206 1 96.4355 89.5064 25.4901 
249 2 19.8674 92.0462 25.7027 
431 2 8.47492 93.0708 25.7632 
303 2 8.33267 95.8766 25.3277 
338 2 71.5528 97.9144 26.4243 
402 2 97.898 3.83467 27.2196 
127 1 7.19196 10.1919 27.8493 
284 2 61.1304 9.51158 27.2722 
210 1 76.2665 9.67749 28.2121 
133 1 49.11 16.8467 27.6798 
197 1 53.3568 32.1949 27.4907 
92 1 71.0581 31.9832 27.7168 
286 2 86.1715 38.0177 28.4075 
141 1 47.2751 40.5791 28.0209 
417 2 60.6521 46.929 27.9571 
406 2 64.5415 50.5387 28.1301 
333 2 91.4833 58.95 27.6924 
422 2 36.9237 64.5549 27.7683 
301 2 3.93831 73.7917 27.6878 
69 1 3.6197 77.1497 28.2207 
205 1 40.9532 83.1387 27.0528 
85 1 71.4987 90.1122 28.281 
327 2 57.137 93.6694 27.8323 
62 1 68.3107 5.01309 28.7931 
253 2 34.4754 6.28204 28.8378 
266 2 87.469 39.9358 28.4526 
389 2 25.0536 43.7198 28.4812 
195 1 39.9895 43.314 29.1508 
157 1 41.0051 46.0808 28.61 
119 1 23.9262 59.0389 29.0719 
214 1 35.8127 59.6578 29.1596 
337 2 34.0386 61.6947 29.2438 
106 1 0.604479 63.167 29.4007 
316 2 6.37542 71.041 28.5017 
67 1 20.8577 71.8522 29.3972 
267 2 74.4882 73.9599 29.0789 
158 1 44.948 79.3918 29.0248 
261 2 52.4625 85.8227 29.4892 
151 1 49.2077 90.9019 29.2584 
280 2 99.1431 92.1121 29.2798 
407 2 20.3781 99.1073 28.4468 
ITEM: TIMESTEP
60200
ITEM: NUMBER OF ATOMS
436
ITEM: BOX BOUNDS pp pp ff
0.0000000000000000e+00 1.0000000000000000e+02
0.0000000000000000e+00 1.0000000000000000e+02
0.0000000000000000e+00 3.0000000000000000e+01
ITEM: ATOMS id type x y z 
139 1 29.4882 6.52884 1.89081 
348 2 32.5874 9.47044 1.05103 
116 1 18.3877 15.9347 1.07992 
341 2 20.6201 15.719 1.1534 
81 1 66.3463 29.8536 1.08514 
168 1 90.7164 68.1243 0.981755 
395 2 61.8821 75.1442 0.971229 
436 2 81.2934 75.8354 0.859016 
95 1 25.4445 76.7077 1.05403 
401 2 74.5907 84.8235 0.774293 
155 1 46.6276 89.0208 0.753741 
396 2 9.94776 93.6765 1.01107 
350 2 90.6352 94.7151 0.611626 
329 2 24.214 5.26982 2.33339 
154 1 65.2106 9.22928 3.21792 
66 1 21.6228 10.2357 3.18495 
179 1 99.1664 12.9226 1.90559 
367 2 26.9812 20.3411 2.01094 
77 1 93.9841 21.7758 2.74528 
221 2 79.17 24.1479 2.80981 
377 2 40.7002 26.5312 2.4543 
74 1 93.5861 38.0002 3.24387 
57 1 74.1433 39.9895 2.4226 
162 1 95.6909 41.0405 2.54759 
21 1 49.8761 43.4833 1.73892 
5 1 26.5342 61.1317 2.22016 
298 2 38.6409 63.7341 2.24207 
305 2 95.8309 71.9756 2.27553 
201 1 53.0504 72.8595 2.69916 
365 2 13.7406 75.8642 1.7688 
423 2 31.9249 78.953 2.55684 
236 2 48.4722 90.2938 2.96435 
200 1 62.942 4.74174 4.03855 
222 2 57.9496 9.49755 3.63132 
36 1 46.0976 12.4034 3.0352 
174 1 20.3152 25.6797 4.3865 
307 2 39.8446 29.3215 3.76562 
28 1 39.4383 37.6557 4.07964 
156 1 0.490099 39.6584 4.56678 
30 1 48.3746 40.2909 3.92117 
315 2 73.7873 41.6891 4.18385 
371 2 97.4327 41.8302 4.09726 
50 1 71.1511 42.2039 3.92862 
373 2 78.4431 43.8564 2.78294 
68 1 77.4977 48.8597 2.40979 
152 1 67.3211 51.7038 4.31974 
282 2 24.2978 57.0827 4.16453 
15 1 17.3048 61.8102 4.38693 
142 1 48.3335 62.752 3.66547 
170 1 78.8997 65.4026 3.64187 
242 2 83.8831 67.0534 3.52466 
237 2 72.1329 69.322 5.54014 
80 1 9.13793 76.0176 4.20516 
89 1 32.6923 78.3431 4.19046 
110 1 77.0945 79.2325 4.0864 
76 1 54.2968 93.9764 5.27555 
293 2 66.0468 93.5951 3.63928 
130 1 15.813 98.7817 3.6459 
314 2 24.396 98.5996 4.58733 
263 2 27.8832 3.97341 4.8999 
184 1 26.8405 3.46883 5.04405 
270 2 34.0107 4.26498 6.20904 
3 1 73.9294 8.99986 5.19698 
391 2 61.5186 23.3343 6.31909 
7 1 16.6458 31.8094 6.29685 
273 2 16.2902 31.816 5.06372 
251 2 47.1399 33.1795 5.41656 
390 2 1.86361 37.7487 5.67622 
274 2 50.5292 40.9095 5.30319 
344 2 52.3935 42.9003 3.61393 
295 2 18.1239 46.7007 5.90058 
234 2 33.5912 45.9599 4.93354 
347 2 77.4185 55.0554 4.71549 
351 2 9.65755 60.8802 6.19147 
219 2 13.2892 59.8266 5.65948 
435 2 46.636 67.6292 6.4004 
97 1 43.5117 68.6811 5.74418 
361 2 84.7041 69.7885 6.20464 
102 1 48.8352 75.1317 5.72902 
175 1 77.436 86.6078 5.85061 
230 2 77.3197 89.705 5.81727 
40 1 52.2591 95.1116 6.1994 
216 1 88.0217 97.8711 5.03742 
165 1 23.9009 99.5176 5.73104 
63 1 37.9089 7.14259 7.28867 
413 2 62.6746 8.95268 7.41239 
167 1 32.6678 16.6877 7.90227 
409 2 89.6476 17.0309 6.38151 
420 2 31.6345 17.9159 7.26711 
238 2 70.2993 18.6134 7.26464 
13 1 59.9596 20.8933 7.26641 
172 1 87.324 21.2225 7.66169 
182 1 0.16932 28.6881 6.96981 
47 1 14.4029 35.1547 6.54925 
100 1 37.6915 33.5034 6.72486 
247 2 42.9193 37.1486 7.11645 
146 1 50.2303 37.2272 6.85057 
65 1 15.108 38.559 6.7025 
288 2 14.7412 39.6422 6.70159 
114 1 36.8682 42.6426 7.75702 
232 2 40.949 44.5866 7.46332 
323 2 59.8657 44.6575 5.91105 
99 1 42.9741 46.1573 7.03516 
345 2 82.9819 51.264 7.88668 
331 2 3.36304 56.6758 6.34863 
322 2 36.938 59.434 7.69946 
374 2 82.6575 62.0753 7.10732 
193 1 58.6818 68.1698 7.26115 
198 1 99.6258 67.5004 6.45275 
339 2 9.6611 68.8236 7.62673 
194 1 75.0908 71.8029 7.98684 
145 1 42.4885 88.8618 6.59429 
289 2 53.5618 90.1062 6.59212 
235 2 4.69541 11.6619 9.58226 
310 2 36.0933 11.8776 8.71066 
354 2 78.1878 15.9769 9.60591 
108 1 44.0128 25.3166 8.81258 
226 2 82.7216 26.9826 8.39471 
243 2 81.9364 29.9327 8.38081 
183 1 86.2978 30.6735 8.60694 
356 2 4.49604 36.7749 8.85781 
334 2 1.31494 48.8826 8.41465 
256 2 12.3592 50.4123 9.57746 
191 1 3.92507 54.2806 8.73666 
223 2 73.8569 71.5569 8.01757 
312 2 24.5181 77.6752 8.77591 
397 2 32.3615 80.8516 8.01263 
59 1 10.1325 84.4075 8.13537 
259 2 98.5957 88.018 9.77891 
415 2 63.1442 92.8996 9.0312 
203 1 64.3304 92.0258 8.95358 
53 1 0.435664 97.6572 9.24173 
412 2 67.9357 100.044 7.78658 
79 1 57.5411 1.38372 9.28577 
218 1 71.1459 5.66607 10.3424 
9 1 3.88626 10.4934 9.84235 
209 1 51.9323 14.3062 10.2351 
189 1 74.0567 16.0946 9.69848 
278 2 10.1886 21.3021 9.58763 
311 2 47.3932 23.7421 10.2971 
187 1 31.0029 24.8141 11.1051 
244 2 26.4609 36.0727 9.61449 
88 1 43.8519 42.2008 10.4964 
128 1 63.4185 40.6463 9.59103 
330 2 76.7816 51.8742 9.52024 
211 1 90.188 58.8199 11.6397 
84 1 8.8993 60.6033 10.4964 
58 1 68.0287 68.8538 10.9239 
320 2 97.9266 67.5052 8.57816 
70 1 4.28658 73.3217 10.8883 
318 2 19.231 73.8218 9.68879 
42 1 96.5882 74.4644 10.9163 
340 2 8.01974 77.8572 10.3108 
176 1 83.2208 82.2794 11.4065 
143 1 12.299 93.4493 10.2604 
403 2 20.334 95.5231 11.4453 
429 2 90.4024 2.98563 11.2876 
258 2 60.472 2.9041 12.6213 
349 2 10.5447 8.52132 13.4866 
129 1 36.5152 11.5917 12.3489 
228 2 44.0085 15.9093 11.1971 
115 1 75.7548 21.3208 12.1621 
382 2 91.2677 22.3352 10.4426 
324 2 5.56051 26.8278 12.2226 
408 2 57.7323 36.4156 11.7972 
122 1 20.6552 45.8306 12.608 
120 1 84.6278 47.3386 11.1405 
370 2 69.2816 49.2776 12.2136 
61 1 4.96984 54.1484 12.4982 
123 1 1.62469 55.5462 11.5353 
271 2 40.5276 56.9093 11.6178 
245 2 58.6182 56.7192 11.5207 
48 1 61.9564 57.0776 10.2006 
104 1 39.7014 57.7786 12.0386 
39 1 22.8612 60.4194 11.544 
91 1 8.17897 76.9401 13.0642 
378 2 91.0264 79.2092 11.5261 
49 1 30.8442 80.7041 11.1145 
306 2 43.1739 86.1247 12.1172 
279 2 68.8854 87.0792 12.8613 
24 1 45.0076 2.40022 13.5944 
125 1 95.2325 3.8209 13.8725 
418 2 32.8642 5.58822 13.4321 
220 2 80.1787 12.0117 12.8731 
428 2 55.0695 13.8026 14.0826 
138 1 56.4244 22.9522 13.2325 
255 2 85.5547 25.0658 13.8129 
78 1 48.2173 26.8951 12.8477 
430 2 87.7747 44.0378 13.445 
17 1 50.505 53.8233 13.9926 
246 2 70.7722 63.4601 14.3779 
297 2 84.1695 67.3745 13.1334 
294 2 68.5598 78.8257 13.8042 
342 2 21.6178 82.0237 13.6599 
18 1 21.0749 84.1139 13.5499 
404 2 23.436 88.6892 14.0817 
326 2 12.6848 93.0403 13.1763 
355 2 0.840865 6.41464 13.5147 
375 2 99.7267 17.5742 15.8179 
369 2 65.3369 24.577 14.0131 
124 1 23.4699 26.8171 14.6803 
12 1 48.4895 30.8386 14.8912 
248 2 79.0549 30.6219 14.9678 
366 2 92.2827 32.7042 15.5901 
319 2 53.7669 36.0969 15.4386 
290 2 33.6457 36.3883 15.8963 
38 1 75.8296 37.4064 16.0266 
52 1 3.68969 39.7439 15.7696 
317 2 12.5463 43.8132 13.9673 
188 1 12.0546 44.9848 14.7643 
336 2 55.4877 49.5468 14.7563 
186 1 86.7952 49.7037 15.1249 
302 2 51.8553 51.3374 14.7962 
399 2 83.981 60.33 15.706 
181 1 79.4502 64.6665 15.3614 
283 2 4.26757 66.1395 15.4722 
380 2 80.6102 65.745 16.0553 
416 2 18.0866 74.1299 14.6572 
87 1 26.2889 74.8897 15.0596 
16 1 30.9304 77.0256 14.2451 
35 1 0.617259 84.7923 13.7906 
22 1 56.6138 89.54 15.0003 
94 1 96.3946 91.0434 15.2651 
118 1 32.0535 93.6455 16.0861 
207 1 67.7321 93.9331 15.1803 
224 2 47.0315 7.32778 15.5738 
332 2 73.9863 6.66904 15.9738 
149 1 44.5256 8.19255 16.1015 
83 1 42.4012 10.6307 16.5356 
272 2 38.7954 14.0448 17.4773 
44 1 81.0614 22.1817 15.9359 
299 2 44.8389 27.0686 16.396 
358 2 40.6169 29.7497 16.5919 
1 1 85.5633 31.7214 16.8026 
346 2 13.514 41.4935 16.0378 
335 2 83.1134 46.1984 16.2679 
239 2 85.5399 49.3605 16.1578 
25 1 51.5406 48.459 16.8743 
178 1 66.4371 50.5663 15.8649 
51 1 36.8122 52.2192 16.0172 
215 1 90.5095 53.7979 17.725 
372 2 42.606 68.3547 17.0328 
10 1 17.2143 72.803 16.5429 
300 2 64.2689 72.9454 16.9662 
231 2 3.6672 80.618 15.5764 
363 2 0.592728 81.3163 16.5433 
433 2 10.4263 90.8707 16.1088 
46 1 30.5788 91.5615 16.7372 
41 1 94.0103 91.5777 16.7282 
121 1 24.9001 96.507 16.2791 
208 1 19.1645 98.9771 16.9136 
427 2 29.0719 5.0198 17.8214 
353 2 64.465 7.1836 18.9422 
54 1 30.5808 12.7425 17.4105 
132 1 25.9897 16.3729 18.0843 
199 1 50.762 17.2892 18.3283 
105 1 14.1072 24.7181 18.4441 
11 1 65.2402 25.6848 18.4547 
29 1 54.8635 44.1861 18.1523 
277 2 93.3567 44.504 18.6112 
177 1 23.5631 52.1359 17.6312 
213 1 67.0135 61.1344 18.2082 
368 2 22.7479 67.7854 17.4412 
109 1 37.265 69.0242 18.1871 
379 2 80.8692 69.1909 18.5192 
252 2 57.5509 80.8876 17.6411 
56 1 70.9179 79.9911 18.1555 
148 1 98.0987 81.4662 17.8886 
313 2 15.6935 86.4297 18.0382 
20 1 76.9076 86.8485 18.499 
308 2 80.4765 92.4772 17.7708 
233 2 99.0966 91.9815 18.4404 
147 1 25.2178 93.5593 18.8064 
190 1 65.0297 94.7294 17.4822 
424 2 24.7969 95.6157 17.2557 
434 2 82.7121 98.3805 17.7907 
73 1 83.1497 99.4787 18.7695 
385 2 58.3211 0.649223 18.567 
23 1 60.017 1.52441 19.6633 
31 1 27.3271 5.07462 19.8421 
227 2 31.4666 8.69064 19.4944 
185 1 40.9217 9.10865 20.0466 
386 2 84.5503 10.8557 18.8541 
241 2 30.9024 18.5847 19.9849 
137 1 37.1871 19.9804 19.1927 
107 1 80.4808 19.2044 19.9136 
32 1 56.2852 25.4883 20.2463 
37 1 58.116 32.0061 19.5127 
276 2 67.6487 40.1112 19.8965 
275 2 10.7169 63.4337 19.4887 
135 1 50.1873 62.6277 20.559 
82 1 77.3339 69.4752 20.236 
64 1 36.7028 76.0296 19.0024 
381 2 92.4646 76.4703 19.5707 
387 2 28.731 79.3652 20.1262 
171 1 81.8699 78.4185 20.3004 
285 2 72.149 81.2537 19.3495 
166 1 51.5768 89.8294 19.8595 
269 2 2.99715 90.6143 21.0479 
425 2 48.9916 97.4194 19.4213 
160 1 31.9557 99.0322 19.4587 
321 2 98.574 98.0429 19.6679 
432 2 63.0323 0.634378 21.9772 
392 2 8.6692 4.32533 21.6116 
103 1 61.1948 6.233 21.1642 
4 1 68.4963 6.36805 20.6945 
72 1 5.36871 17.4512 21.4385 
410 2 49.4214 17.1458 20.5664 
421 2 66.9999 22.4607 20.6023 
362 2 15.341 23.3303 20.6973 
60 1 98.9998 23.5298 21.6423 
202 1 26.726 26.0355 20.7396 
287 2 52.0603 25.9427 21.2307 
98 1 49.8635 27.1806 22.1013 
112 1 76.7199 36.8524 21.2014 
325 2 41.3993 37.6322 20.7893 
240 2 85.749 38.3668 22.0094 
180 1 91.3044 41.5139 22.0412 
229 2 70.305 45.8058 20.992 
360 2 87.9807 47.2372 21.3034 
43 1 79.378 58.4821 21.5296 
268 2 51.0838 61.4821 20.611 
192 1 8.78224 64.5402 20.8248 
250 2 23.4314 68.0829 21.6209 
204 1 88.6479 68.5188 22.0359 
265 2 80.4167 73.2397 21.5063 
364 2 16.3572 76.4447 21.0676 
117 1 22.9087 75.704 22.3325 
71 1 23.8772 84.3069 21.2733 
217 1 4.36124 86.1939 21.3977 
388 2 31.7071 89.1299 21.0464 
304 2 77.4293 96.8121 21.5294 
75 1 11.3775 99.1226 20.9929 
173 1 57.0557 98.9192 21.1733 
45 1 18.1714 0.90979 22.4721 
257 2 24.6264 14.2631 22.0638 
309 2 7.67938 16.6585 23.1649 
93 1 16.0176 19.0463 22.4109 
113 1 54.5998 20.2679 23.3646 
384 2 26.0446 27.1562 22.1285 
291 2 51.5245 26.6714 22.5451 
26 1 69.7023 28.7857 22.1425 
352 2 99.3782 32.5241 22.2254 
262 2 54.3979 40.3375 22.6571 
163 1 32.2799 42.5704 23.4112 
136 1 63.4332 43.117 23.3442 
111 1 9.44926 50.2581 22.4115 
393 2 8.08727 50.2528 21.7326 
376 2 39.6142 49.8781 21.8746 
140 1 63.317 53.7998 23.0907 
212 1 90.7024 70.7781 22.7658 
126 1 4.67439 71.9214 22.4257 
411 2 72.3214 75.193 22.5593 
359 2 37.5599 76.5981 22.3048 
419 2 24.1322 80.7924 23.1881 
55 1 51.4351 82.1339 22.7173 
292 2 45.8666 82.9882 23.5961 
296 2 12.2575 86.2668 23.1826 
414 2 5.27595 93.8831 22.4724 
400 2 51.0651 99.1496 23.6514 
8 1 24.6374 -0.0169159 24.8236 
264 2 53.7929 8.93568 24.4152 
90 1 20.801 17.4182 23.8981 
131 1 95.1179 19.6516 24.5247 
405 2 15.5819 22.1356 25.4044 
2 1 17.5475 27.5885 24.652 
161 1 24.9558 39.4726 23.9444 
6 1 81.8723 41.6502 24.7525 
150 1 84.8533 47.9599 24.3473 
225 2 22.924 52.088 24.576 
27 1 68.1385 51.876 25.1343 
260 2 26.0962 60.1879 24.5168 
343 2 48.2662 64.3408 25.3151 
164 1 69.9911 65.6179 23.8681 
101 1 8.35291 86.3518 24.0737 
96 1 89.0649 86.063 23.6061 
159 1 6.53287 92.9046 23.8268 
328 2 28.234 93.3677 24.975 
14 1 97.3457 95.149 24.6154 
357 2 36.3821 4.79571 26.9878 
196 1 91.9587 11.5842 25.4071 
86 1 34.4153 12.5719 25.7501 
281 2 53.3557 34.23 26.8284 
426 2 47.91 37.6823 26.8033 
33 1 85.6523 38.3944 26.6009 
153 1 77.1438 42.0433 26.0521 
169 1 22.4197 51.599 25.3066 
134 1 48.3379 50.2964 26.9258 
254 2 79.6516 55.394 25.9308 
19 1 45.6808 70.2206 25.2571 
394 2 51.9328 69.8396 26.8123 
398 2 52.673 75.889 25.2054 
34 1 76.3737 75.0153 25.8442 
383 2 39.2273 76.3597 27.1566 
144 1 80.0733 88.7912 26.0017 
206 1 96.2416 89.528 25.6407 
249 2 19.6824 91.8618 25.7976 
431 2 8.76317 93.2683 26.1205 
303 2 8.2542 95.1875 25.1263 
338 2 70.8591 97.8079 26.345 
402 2 97.8514 3.36981 27.0668 
127 1 6.98904 9.96184 28.3177 
284 2 60.7861 9.71523 26.5788 
210 1 76.1189 10.0803 28.328 
133 1 49.7466 17.3773 27.7391 
197 1 52.3029 31.5331 27.6225 
92 1 71.8031 32.2752 28.0386 
286 2 85.7244 38.2068 28.0396 
141 1 46.4476 41.4664 28.1687 
417 2 60.8088 46.578 27.3944 
406 2 64.6178 50.6509 28.4875 
333 2 90.7723 58.8975 27.4977 
422 2 37.8047 64.7264 28.3307 
301 2 3.84274 73.8723 28.4004 
69 1 3.85051 76.7398 27.9236 
205 1 41.426 82.3439 26.9297 
85 1 72.1778 89.9447 28.373 
327 2 57.4395 93.3879 27.3932 
62 1 68.519 5.56601 29.1387 
253 2 33.734 6.70343 27.9719 
266 2 87.8562 40.4424 28.8425 
389 2 24.7124 43.8232 27.6266 
195 1 40.2191 43.117 29.4491 
157 1 41.0042 45.8929 28.5542 
119 1 24.0518 59.3098 28.5697 
214 1 36.433 59.2122 28.4938 
337 2 34.0598 61.6799 28.85 
106 1 0.118912 62.7789 29.3614 
316 2 6.08951 71.4434 28.8362 
67 1 20.5622 72.5642 29.3146 
267 2 74.5777 74.265 29.4819 
158 1 44.684 78.8609 29.2158 
261 2 52.5594 85.9335 28.9743 
151 1 49.3406 90.5833 28.8254 
280 2 98.9189 91.9963 29.017 
407 2 20.0131 99.2826 28.5993 
ITEM: TIMESTEP
60400
ITEM: NUMBER OF ATOMS
436
ITEM: BOX BOUNDS pp pp ff
0.0000000000000000e+00 1.0000000000000000e+02
0.0000000000000000e+00 1.0000000000000000e+02
0.0000000000000000e+00 3.0000000000000000e+01
ITEM: ATOMS id type x y z 
139 1 29.4668 6.3745 2.90432 
348 2 32.7476 10.2779 1.72913 
116 1 19.0263 15.4913 1.05669 
341 2 20.3487 15.6894 1.61056 
81 1 66.2568 30.2187 1.65953 
168 1 90.2952 67.9725 0.542619 
395 2 61.7357 75.8219 0.929065 
436 2 80.9291 76.0017 0.555172 
95 1 25.213 76.5416 0.769328 
401 2 74.8721 84.9409 1.94136 
155 1 46.1575 88.7513 0.649763 
396 2 9.81278 93.3854 0.841831 
350 2 89.9895 94.7689 0.863338 
329 2 24.6638 4.78402 3.09104 
154 1 64.5841 9.49096 3.29875 
66 1 21.5413 10.8763 3.34196 
179 1 99.4449 12.8252 1.23676 
367 2 26.6312 20.7414 2.20868 
77 1 94.1382 22.0042 3.4616 
221 2 78.8192 24.1446 2.91569 
377 2 41.4778 26.6171 2.61844 
74 1 93.3524 37.574 3.58847 
57 1 73.56 40.6934 2.74207 
162 1 95.816 41.3773 2.22957 
21 1 50.8304 43.2176 1.72774 
5 1 27.0379 60.4294 2.33854 
298 2 38.3752 63.1836 2.36667 
305 2 95.7238 72.2283 1.68255 
201 1 52.8668 72.3119 2.65065 
365 2 13.4731 75.2015 1.18983 
423 2 32.8707 78.3464 2.51936 
236 2 48.5784 90.3535 2.89467 
200 1 62.5361 4.66037 4.36473 
222 2 58.239 8.80477 3.37529 
36 1 46.8343 12.5775 2.73349 
174 1 20.3481 25.4958 4.41894 
307 2 40.1718 29.0358 3.23226 
28 1 39.8784 37.4042 4.53595 
156 1 0.464318 39.3332 4.59042 
30 1 47.8847 40.5654 4.42351 
315 2 74.4407 41.2903 4.10901 
371 2 97.1934 42.1505 3.83807 
50 1 71.3743 42.0392 3.92008 
373 2 77.8617 44.2179 2.21724 
68 1 78.0469 48.0542 1.41816 
152 1 67.5598 52.2128 5.00606 
282 2 24.6364 56.9497 3.80423 
15 1 17.2881 62.2111 4.26345 
142 1 49.1292 63.0139 4.07859 
170 1 79.2041 65.477 3.33351 
242 2 83.6953 67.0765 3.82194 
237 2 72.7826 68.9632 6.43187 
80 1 8.82567 76.0578 4.38906 
89 1 32.5815 77.9889 3.52292 
110 1 76.4142 79.3728 4.28659 
76 1 54.107 94.0492 6.05835 
293 2 65.974 93.1846 3.8522 
130 1 16.1355 99.3031 3.34925 
314 2 24.8765 98.4969 4.2503 
263 2 27.6409 3.82693 5.00702 
184 1 26.7118 3.34249 4.5141 
270 2 34.0372 4.40133 7.0516 
3 1 73.6772 9.56422 4.8089 
391 2 61.1076 23.1003 6.60904 
7 1 17.2489 31.8451 6.2909 
273 2 15.8534 31.7436 4.93879 
251 2 47.0546 32.7847 5.18609 
390 2 1.61225 38.5542 6.40459 
274 2 50.6113 41.2335 4.7545 
344 2 52.3783 42.7827 2.1468 
295 2 18.9262 46.5313 5.62494 
234 2 34.3309 46.5676 4.60911 
347 2 77.9904 55.0933 4.42453 
351 2 8.99903 61.1624 6.83348 
219 2 12.6698 59.5838 5.62105 
435 2 46.0479 68.1409 7.29566 
97 1 43.1774 68.3869 5.41803 
361 2 83.8529 69.6091 6.72643 
102 1 48.8746 74.7569 5.76997 
175 1 77.8471 86.5431 6.13615 
230 2 76.9547 89.6447 6.30411 
40 1 51.5018 94.7649 6.21622 
216 1 88.252 97.6262 5.31996 
165 1 23.6354 100.267 5.99229 
63 1 37.7387 6.4389 7.28095 
413 2 62.0892 8.95346 7.71124 
167 1 32.371 16.8019 8.31326 
409 2 90.1999 17.3857 5.74945 